 Gaussian 09, Revision C.01,
 Gaussian 09:  EM64L-G09RevC.01 23-Sep-2011

 -----------------------------------------------
 # opt=tight freq b3lyp/6-311g geom=connectivity
 -----------------------------------------------

 99/9=1/99;
 ------
 pCFHCl
 ------
 Charge =  0 Multiplicity = 1

 SCF Done:  E(RB3LYP) =  -992.139291430     A.U. after   15 cycles
 SCF Done:  E(RB3LYP) =  -992.239113754     A.U. after   14 cycles
 SCF Done:  E(RB3LYP) =  -992.300210533     A.U. after   16 cycles
 SCF Done:  E(RB3LYP) =  -992.306864429     A.U. after   13 cycles
 SCF Done:  E(RB3LYP) =  -992.310719651     A.U. after   13 cycles
 SCF Done:  E(RB3LYP) =  -992.311578007     A.U. after   14 cycles
 SCF Done:  E(RB3LYP) =  -992.313271318     A.U. after   13 cycles
 SCF Done:  E(RB3LYP) =  -992.313721757     A.U. after   12 cycles
 SCF Done:  E(RB3LYP) =  -992.313902691     A.U. after   12 cycles
 SCF Done:  E(RB3LYP) =  -992.313986999     A.U. after   11 cycles
 SCF Done:  E(RB3LYP) =  -992.314437509     A.U. after   11 cycles
 SCF Done:  E(RB3LYP) =  -992.314454189     A.U. after   11 cycles
 SCF Done:  E(RB3LYP) =  -992.314474694     A.U. after   11 cycles
 SCF Done:  E(RB3LYP) =  -992.314480362     A.U. after   11 cycles
 SCF Done:  E(RB3LYP) =  -992.314481977     A.U. after   11 cycles
 SCF Done:  E(RB3LYP) =  -992.314482109     A.U. after    8 cycles
 SCF Done:  E(RB3LYP) =  -992.314482116     A.U. after    6 cycles
 SCF Done:  E(RB3LYP) =  -992.314482118     A.U. after    6 cycles
 SCF Done:  E(RB3LYP) =  -992.314482118     A.U. after    5 cycles
 Optimization completed.
    -- Stationary point found.
 Normal termination of Gaussian 09 at Sun Jul 26 17:15:36 2015.

 ------------------------------------------------------------------
 #N Geom=AllCheck Guess=TCheck SCRF=Check GenChk RB3LYP/6-311G Freq
 ------------------------------------------------------------------

 Structure from the checkpoint file:  30_opt.chk
 ------
 pCFHCl
 ------
 Charge =  0 Multiplicity = 1

                         Standard orientation:
 ---------------------------------------------------------------------
 Center     Atomic      Atomic             Coordinates (Angstroms)
 Number     Number       Type             X           Y           Z
 ---------------------------------------------------------------------
      1         17           0        5.246413    0.372817    0.000004
      2          8           0       -4.360988    1.176707    0.000004
      3          1           0       -5.331090    1.071526    0.000005
      4          8           0       -4.422431   -1.107998    0.000003
      5          7           0        1.911882    0.124685   -0.000006
      6          1           0        2.422091    0.995085    0.000012
      7          7           0        2.747554   -1.011863   -0.000001
      8          1           0        2.645348   -1.580872    0.840457
      9          1           0        3.900370   -0.521806   -0.000003
     10          1           0        2.645349   -1.580874   -0.840460
     11          6           0       -3.753200   -0.066810    0.000002
     12          6           0       -2.287527    0.008173    0.000000
     13          6           0       -1.595809    1.233482   -0.000003
     14          1           0       -2.155765    2.156053   -0.000003
     15          6           0       -0.210360    1.261186   -0.000005
     16          1           0        0.314106    2.207563   -0.000008
     17          6           0        0.523345    0.056527   -0.000005
     18          6           0       -0.164589   -1.171343   -0.000002
     19          1           0        0.372547   -2.109690   -0.000001
     20          6           0       -1.554951   -1.186276    0.000000
     21          1           0       -2.092146   -2.123932    0.000002
 ---------------------------------------------------------------------

 SCF Done:  E(RB3LYP) =  -992.314482118     A.U. after    1 cycles

 The electronic state is 1-A.
 Alpha  occ. eigenvalues -- -101.46916 -19.18261 -19.13184 -14.46531 -14.41656
 Alpha  occ. eigenvalues --  -10.33668 -10.27881 -10.21882 -10.21840 -10.21807
 Alpha  occ. eigenvalues --  -10.21698 -10.21456  -9.38371  -7.14484  -7.14024
 Alpha  occ. eigenvalues --   -7.13989  -1.12782  -1.08742  -1.04031  -0.92813
 Alpha  occ. eigenvalues --   -0.87861  -0.79869  -0.79082  -0.74935  -0.70352
 Alpha  occ. eigenvalues --   -0.66569  -0.63751  -0.62320  -0.60145  -0.59275
 Alpha  occ. eigenvalues --   -0.55574  -0.51367  -0.49798  -0.48494  -0.47475
 Alpha  occ. eigenvalues --   -0.46811  -0.46787  -0.43534  -0.43009  -0.40639
 Alpha  occ. eigenvalues --   -0.38496  -0.35746  -0.33287  -0.29715  -0.29657
 Alpha  occ. eigenvalues --   -0.28901  -0.26343  -0.26163  -0.25599
 Alpha virt. eigenvalues --   -0.07237  -0.04326  -0.02605   0.02235   0.02772
 Alpha virt. eigenvalues --    0.02780   0.04309   0.04741   0.06180   0.09762
 Alpha virt. eigenvalues --    0.10589   0.11833   0.13526   0.13898   0.18710

 Mulliken atomic charges:
              1
     1  Cl  -0.561138
     2  O   -0.582863
     3  H    0.392762
     4  O   -0.372335
     5  N   -0.607514
     6  H    0.382791
     7  N   -0.596020
     8  H    0.377746
     9  H    0.294411
    10  H    0.377747
    11  C    0.475235
    12  C   -0.172007
    13  C   -0.052643
    14  H    0.193302
    15  C   -0.223813
    16  H    0.179873
    17  C    0.417409
    18  C   -0.176373
    19  H    0.155275
    20  C   -0.091538
    21  H    0.189693
 Sum of Mulliken atomic charges =   0.00000

 Dipole moment (field-independent basis, Debye):
    X=             -4.6524    Y=             -1.9054    Z=              0.0000  Tot=              5.0274
 Quadrupole moment (field-independent basis, Debye-Ang):
   XX=           -130.7152   YY=            -71.4113   ZZ=            -80.6362
   XY=            -21.5703   XZ=              0.0000   YZ=              0.0000

  Exact polarizability: 189.502   4.898 106.205   0.000   0.000  45.446
 Approx polarizability: 251.878  15.950 182.060   0.000   0.000  61.019

                     1                      2                      3
                     A                      A                      A
 Frequencies --    12.8263                47.7697                73.7837
 Red. masses --    10.1953                10.6379                 5.4919
 Frc consts  --     0.0010                 0.0143                 0.0176
 IR Inten    --     3.4655                14.3390                12.0519

                     4                      5                      6
                     A                      A                      A
 Frequencies --    98.4087               118.5371               131.6322
 Red. masses --     4.7764                 4.6075                 8.4972
 Frc consts  --     0.0273                 0.0381                 0.0867
 IR Inten    --     6.5553                 8.0405                 2.4939

                     7                      8                      9
                     A                      A                      A
 Frequencies --   214.6586               288.6503               342.8608
 Red. masses --     6.2759                 5.2903                 6.9829
 Frc consts  --     0.1704                 0.2597                 0.4836
 IR Inten    --     3.1829                 4.1392                 7.6002

                    10                     11                     12
                     A                      A                      A
 Frequencies --   413.5118               419.1471               432.7706
 Red. masses --     1.1567                 6.3148                 2.6143
 Frc consts  --     0.1165                 0.6536                 0.2885
 IR Inten    --    76.4836                 0.4762                12.3967

                    13                     14                     15
                     A                      A                      A
 Frequencies --   493.3177               505.3326               521.6470
 Red. masses --     1.3396                 5.5664                 1.6618
 Frc consts  --     0.1921                 0.8375                 0.2664
 IR Inten    --     4.8220                13.4722                79.6611

                    16                     17                     18
                     A                      A                      A
 Frequencies --   552.2255               610.1974               619.4056
 Red. masses --     4.8020                 1.1869                 3.6678
 Frc consts  --     0.8628                 0.2604                 0.8291
 IR Inten    --     2.0203                87.8927               297.7644

                    19                     20                     21
                     A                      A                      A
 Frequencies --   664.6215               705.6466               730.2097
 Red. masses --     7.0660                 3.2648                 3.9843
 Frc consts  --     1.8390                 0.9578                 1.2517
 IR Inten    --    10.0065                75.5340               135.0023

                    22                     23                     24
                     A                      A                      A
 Frequencies --   778.8491               826.3854               844.7945
 Red. masses --     4.7887                 3.5224                 1.2723
 Frc consts  --     1.7115                 1.4173                 0.5350
 IR Inten    --    30.4769               922.0328                 0.8260

                    25                     26                     27
                     A                      A                      A
 Frequencies --   870.2290               904.1901              1011.3035
 Red. masses --     1.8133                 1.2517                 1.3625
 Frc consts  --     0.8091                 0.6029                 0.8210
 IR Inten    --    63.7111              4332.1463                 0.1126

                    28                     29                     30
                     A                      A                      A
 Frequencies --  1015.6918              1035.3650              1064.9322
 Red. masses --     1.3624                 3.3210                 3.8043
 Frc consts  --     0.8281                 2.0975                 2.5419
 IR Inten    --     0.4542                19.2740               193.8005

                    31                     32                     33
                     A                      A                      A
 Frequencies --  1087.6211              1152.0150              1194.0924
 Red. masses --     2.4695                 1.5338                 1.5673
 Frc consts  --     1.7212                 1.1993                 1.3167
 IR Inten    --    46.9510                37.9093               107.0169

                    34                     35                     36
                     A                      A                      A
 Frequencies --  1206.5541              1240.5156              1262.9833
 Red. masses --     1.7894                 1.2738                 1.2034
 Frc consts  --     1.5348                 1.1549                 1.1310
 IR Inten    --   240.3745                19.1658                13.0556

                    37                     38                     39
                     A                      A                      A
 Frequencies --  1330.0683              1364.2433              1368.3239
 Red. masses --     3.5913                 2.9702                 1.6048
 Frc consts  --     3.7433                 3.2570                 1.7703
 IR Inten    --     9.6247                 3.1005                 1.5984

                    40                     41                     42
                     A                      A                      A
 Frequencies --  1380.4815              1447.0972              1457.6113
 Red. masses --     3.0916                 1.0222                 2.2879
 Frc consts  --     3.4713                 1.2612                 2.8640
 IR Inten    --   122.6169                33.4981                 6.9208

                    43                     44                     45
                     A                      A                      A
 Frequencies --  1485.6118              1545.1731              1573.3849
 Red. masses --     1.1733                 1.7469                 2.3140
 Frc consts  --     1.5257                 2.4573                 3.3751
 IR Inten    --   176.3305                13.7869               240.6984

                    46                     47                     48
                     A                      A                      A
 Frequencies --  1617.8805              1654.0351              1692.9635
 Red. masses --     3.2105                 5.3671                 8.1234
 Frc consts  --     4.9512                 8.6513                13.7178
 IR Inten    --   122.0752               275.5246               259.0071

                    49                     50                     51
                     A                      A                      A
 Frequencies --  1726.0341              3177.2669              3178.3975
 Red. masses --     1.0687                 1.0905                 1.0887
 Frc consts  --     1.8759                 6.4861                 6.4797
 IR Inten    --    19.1338                10.8817                16.0523

                    52                     53                     54
                     A                      A                      A
 Frequencies --  3207.5368              3221.4729              3396.5883
 Red. masses --     1.0940                 1.0940                 1.0433
 Frc consts  --     6.6316                 6.6889                 7.0919
 IR Inten    --     3.9145                 1.2530                17.0256

                    55                     56                     57
                     A                      A                      A
 Frequencies --  3478.9299              3591.2687              3663.1694
 Red. masses --     1.0991                 1.0800                 1.0643
 Frc consts  --     7.8378                 8.2067                 8.4148
 IR Inten    --    13.5087               193.8442                65.1797

 - Thermochemistry -
 -------------------
 Temperature   298.150 Kelvin.  Pressure   1.00000 Atm.
 Atom     1 has atomic number 17 and mass  34.96885

 Molecular mass:   188.03526 amu.
 Principal axes and moments of inertia in atomic units:
                           1         2         3
     Eigenvalues --   569.091057523.604288082.52639
           X            0.99997  -0.00809   0.00000
           Y            0.00809   0.99997   0.00000
           Z            0.00000   0.00000   1.00000
 This molecule is an asymmetric top.
 Rotational symmetry number  1.
 Warning -- assumption of classical behavior for rotation
           may cause significant error
 Rotational temperatures (Kelvin)      0.15220     0.01151     0.01072
 Rotational constants (GHZ):           3.17127     0.23988     0.22329
 Zero-point vibrational energy     418993.4 (Joules/Mol)
                                  100.14182 (Kcal/Mol)
 Warning -- explicit consideration of  18 degrees of freedom as
           vibrations may cause significant error
 Vibrational temperatures:     18.45    68.73   106.16   141.59   170.55
          (Kelvin)            189.39   308.85   415.30   493.30   594.95
                              603.06   622.66   709.77   727.06   750.53
                              794.53   877.94   891.19   956.24  1015.27
                             1050.61  1120.59  1188.98  1215.47  1252.06
                             1300.93  1455.04  1461.35  1489.66  1532.20
                             1564.84  1657.49  1718.03  1735.96  1784.82
                             1817.15  1913.67  1962.84  1968.71  1986.20
                             2082.05  2097.17  2137.46  2223.16  2263.75
                             2327.77  2379.78  2435.79  2483.37  4571.37
                             4573.00  4614.92  4634.98  4886.93  5005.40
                             5167.03  5270.48

 Zero-point correction=                           0.159586 (Hartree/Particle)
 Thermal correction to Energy=                    0.171414
 Thermal correction to Enthalpy=                  0.172358
 Thermal correction to Gibbs Free Energy=         0.118789
 Sum of electronic and zero-point Energies=           -992.154896
 Sum of electronic and thermal Energies=              -992.143068
 Sum of electronic and thermal Enthalpies=            -992.142124
 Sum of electronic and thermal Free Energies=         -992.195693

                     E (Thermal)             CV                S
                      KCal/Mol        Cal/Mol-Kelvin    Cal/Mol-Kelvin
 Total                  107.564             42.999            112.746
 Electronic               0.000              0.000              0.000
 Translational            0.889              2.981             41.600
 Rotational               0.889              2.981             31.915
 Vibrational            105.786             37.038             39.231
 Vibration     1          0.593              1.987              7.517
 Vibration     2          0.595              1.978              4.908
 Vibration     3          0.599              1.966              4.050
 Vibration     4          0.604              1.950              3.486
 Vibration     5          0.609              1.934              3.124
 Vibration     6          0.612              1.922              2.922
 Vibration     7          0.645              1.819              2.004
 Vibration     8          0.685              1.695              1.482
 Vibration     9          0.722              1.590              1.199
 Vibration    10          0.777              1.441              0.914
 Vibration    11          0.782              1.429              0.895
 Vibration    12          0.794              1.399              0.850
 Vibration    13          0.849              1.265              0.675
 Vibration    14          0.861              1.238              0.645
 Vibration    15          0.877              1.202              0.606
 Vibration    16          0.908              1.135              0.540
 Vibration    17          0.969              1.010              0.432
 Vibration    18          0.979              0.991              0.417

 Optimization completed.
    -- Stationary point found.
 Normal termination of Gaussian 09 at Sun Jul 26 17:22:45 2015.
